461de0ca5a76024e82294d430ecae882
db4a91889afedb684075b44d9cc98a09
2413f06953cde37abb4f823760a4631a
d77a5773d27ad09dec42e675a12e1d0b
2e38b114c2ab24fa5bb3ea928338b88f
f3c6be3125ae88d7c948409d7d8de463
1ce4520af54005e957c7dbcb4c0eea3a
e50cad4000fd4d3128322bfdda276baa
822aa35538a98acb4efb2f9238aa5edd
3b35e83eb304cc17d6342c695073df05
